
#(C) 2019 by FIZ Karlsruhe - Leibniz Institute for Information Infrastructure.  All rights reserved.
data_81498-ICSD
_database_code_ICSD 81498
_audit_creation_date 1997-05-13
_audit_update_record 2015-08-01
_chemical_name_systematic 'Iron silicide (1/1) - epsilon'
_chemical_formula_structural 'Fe Si'
_chemical_formula_sum 'Fe1 Si1'
_chemical_name_structure_type Fersilicite-FeSi
_chemical_name_mineral Naquite
_exptl_crystal_density_diffrn 6.28
_cell_measurement_pressure 2590000.
_publ_section_title

;
A high-pressure study of epsilon-(Fe Si), between 0 and 8.5 GPa, by
time-of-flight neutron powder diffraction
;
loop_
_citation_id
_citation_journal_full
_citation_year
_citation_journal_volume
_citation_page_first
_citation_page_last
_citation_journal_id_ASTM
primary 'Journal of Applied Crystallography' 1996 29 215 218 JACGAR
loop_
_publ_author_name
'Wood, I.G.'
'David, W.I.F.'
'Hull, S.'
'Price, G.D.'
_cell_length_a 4.46089(20)
_cell_length_b 4.46089(20)
_cell_length_c 4.46089(20)
_cell_angle_alpha 90.
_cell_angle_beta 90.
_cell_angle_gamma 90.
_cell_volume 88.77
_cell_formula_units_Z 4
_symmetry_space_group_name_H-M 'P 21 3'
_symmetry_Int_Tables_number 198
_refine_ls_R_factor_all 0.039
loop_
_symmetry_equiv_pos_site_id
_symmetry_equiv_pos_as_xyz
1 '-z+1/2, -x, y+1/2'
2 '-y+1/2, -z, x+1/2'
3 '-x+1/2, -y, z+1/2'
4 '-z, x+1/2, -y+1/2'
5 '-y, z+1/2, -x+1/2'
6 '-x, y+1/2, -z+1/2'
7 'z+1/2, -x+1/2, -y'
8 'y+1/2, -z+1/2, -x'
9 'x+1/2, -y+1/2, -z'
10 'z, x, y'
11 'y, z, x'
12 'x, y, z'
loop_
_atom_type_symbol
_atom_type_oxidation_number
Fe0+ 0
Si0+ 0
loop_
_atom_site_label
_atom_site_type_symbol
_atom_site_symmetry_multiplicity
_atom_site_Wyckoff_symbol
_atom_site_fract_x
_atom_site_fract_y
_atom_site_fract_z
_atom_site_B_iso_or_equiv
_atom_site_occupancy
_atom_site_attached_hydrogens
Fe1 Fe0+ 4 a 0.1366(3) 0.1366(3) 0.1366(3) 0.17(2) 1. 0
Si1 Si0+ 4 a 0.8429(5) 0.8429(5) 0.8429(5) 0.19(6) 1. 0
#End of TTdata_81498-ICSD