
#(C) 2019 by FIZ Karlsruhe - Leibniz Institute for Information Infrastructure.  All rights reserved.
data_91052-ICSD
_database_code_ICSD 91052
_audit_creation_date 2002-10-01
_chemical_name_systematic 'Barium germanide (24/100)'
_chemical_formula_structural 'Ba24 Ge100'
_chemical_formula_sum 'Ba24 Ge100'
_chemical_name_structure_type K6Sn25
_exptl_crystal_density_diffrn 5.67
_publ_section_title
'Preparation and structure of a new germanium clathrate, Ba24 Ge100'
loop_
_citation_id
_citation_journal_full
_citation_year
_citation_journal_volume
_citation_page_first
_citation_page_last
_citation_journal_id_ASTM
primary 'Journal of Solid State Chemistry' 2000 151 117 121 JSSCBI
loop_
_publ_author_name
'Fukuoka, H.'
'Iwai, K.'
'Yamanaka, S.'
'Abe, H.'
'Yoza, K.'
'Haeming, L.'
_cell_length_a 14.5635(7)
_cell_length_b 14.5635(7)
_cell_length_c 14.5635(7)
_cell_angle_alpha 90.
_cell_angle_beta 90.
_cell_angle_gamma 90.
_cell_volume 3088.85
_cell_formula_units_Z 1
_symmetry_space_group_name_H-M 'P 41 3 2'
_symmetry_Int_Tables_number 213
_refine_ls_R_factor_all 0.033
loop_
_symmetry_equiv_pos_site_id
_symmetry_equiv_pos_as_xyz
1 '-z+1/4, y+3/4, x+1/4'
2 'z+1/4, -y+1/4, x+3/4'
3 'z+3/4, y+1/4, -x+1/4'
4 '-z+3/4, -y+3/4, -x+3/4'
5 'y+3/4, x+1/4, -z+1/4'
6 '-y+1/4, x+3/4, z+1/4'
7 'y+1/4, -x+1/4, z+3/4'
8 '-y+3/4, -x+3/4, -z+3/4'
9 'x+1/4, -z+1/4, y+3/4'
10 'x+3/4, z+1/4, -y+1/4'
11 '-x+1/4, z+3/4, y+1/4'
12 '-x+3/4, -z+3/4, -y+3/4'
13 'z+1/2, -x+1/2, -y'
14 '-z+1/2, -x, y+1/2'
15 '-z, x+1/2, -y+1/2'
16 'z, x, y'
17 '-y, z+1/2, -x+1/2'
18 'y+1/2, -z+1/2, -x'
19 '-y+1/2, -z, x+1/2'
20 'y, z, x'
21 '-x+1/2, -y, z+1/2'
22 '-x, y+1/2, -z+1/2'
23 'x+1/2, -y+1/2, -z'
24 'x, y, z'
loop_
_atom_type_symbol
_atom_type_oxidation_number
Ge0+ 0
Ba0+ 0
loop_
_atom_site_label
_atom_site_type_symbol
_atom_site_symmetry_multiplicity
_atom_site_Wyckoff_symbol
_atom_site_fract_x
_atom_site_fract_y
_atom_site_fract_z
_atom_site_B_iso_or_equiv
_atom_site_occupancy
_atom_site_attached_hydrogens
Ge1 Ge0+ 8 c 0.03046(12) 0.03046(12) 0.03046(12) . 1. 0
Ge2 Ge0+ 24 e 0.20297(11) 0.04252(10) 0.00014(10) . 1. 0
Ge3 Ge0+ 12 d 0.125 0.16907(10) 0.41907(10) . 1. 0
Ge4 Ge0+ 24 e 0.23965(10) 0.93497(11) 0.87355(11) . 1. 0
Ge5 Ge0+ 24 e 0.41558(11) 0.85259(11) 0.08346(10) . 1. 0
Ge6 Ge0+ 8 c 0.32523(10) 0.32523(10) 0.32523(10) . 1. 0
Ba1 Ba0+ 8 c 0.18988(6) 0.18988(6) 0.18988(6) . 1. 0
Ba2 Ba0+ 4 b 0.875 0.875 0.875 . 1. 0
Ba3 Ba0+ 12 d 0.125 0.81026(9) 0.06026(9) . 1. 0
loop_
_atom_site_aniso_label
_atom_site_aniso_type_symbol
_atom_site_aniso_U_11
_atom_site_aniso_U_22
_atom_site_aniso_U_33
_atom_site_aniso_U_12
_atom_site_aniso_U_13
_atom_site_aniso_U_23
Ge1 Ge0+ 0.0284(7) 0.0284(7) 0.0284(7) 0.0014(7) 0.0014(7) 0.0014(7)
Ge2 Ge0+ 0.0202(8) 0.0194(8) 0.0189(8) 0.0012(6) 0.0013(6) -.0014(6)
Ge3 Ge0+ 0.0216(11) 0.0198(7) 0.0198(7) -.0012(7) 0.0012(7) 0.0035(9)
Ge4 Ge0+ 0.0184(8) 0.0197(7) 0.0193(8) -.0007(6) 0.0008(6) -.0025(6)
Ge5 Ge0+ 0.0247(8) 0.0198(8) 0.0177(8) -.0017(7) 0.0006(7) 0.0008(6)
Ge6 Ge0+ 0.0176(5) 0.0176(5) 0.0176(5) -.0020(6) -.0020(6) -.0020(6)
Ba1 Ba0+ 0.0211(3) 0.0211(3) 0.0211(3) 0.0009(4) 0.0009(4) 0.0009(4)
Ba2 Ba0+ 0.0265(5) 0.0265(5) 0.0265(5) 0.0063(6) 0.0063(6) 0.0063(6)
Ba3 Ba0+ 0.113(2) 0.0329(6) 0.0329(6) 0.0025(7) -.0025(7) 0.0060(8)
#End of TTdata_91052-ICSD