
#(C) 2019 by FIZ Karlsruhe - Leibniz Institute for Information Infrastructure.  All rights reserved.
data_156230-ICSD
_database_code_ICSD 156230
_audit_creation_date 2007-08-01
_chemical_name_systematic 'Mercury sulfide chloride bromide (3/2/1.55/0.45)'
_chemical_formula_structural 'Hg3 S2 (Cl1.55 Br0.45)'
_chemical_formula_sum 'Br0.45 Cl1.55 Hg3 S2'
_chemical_name_structure_type Hg3S2Cl2(cP224)
_chemical_name_mineral Lavrentievite
_exptl_crystal_density_diffrn 6.85
_publ_section_title

;
Crystal chemistry of mercury sulfohalides of composition Hg3 S2 Hal2 (Hal: Cl,
Br).I. Crystal structures of two polymorphic modifications of Hg3 S2 Cl2-x Brx
(x ca. 0.5)
;
loop_
_citation_id
_citation_journal_full
_citation_year
_citation_journal_volume
_citation_page_first
_citation_page_last
_citation_journal_id_ASTM
primary 'Canadian Mineralogist' 2006 44 1239 1246 CAMIA6
loop_
_publ_author_name
'Pervukhina, N.V.'
'Vasil'ev, V.I. (Vasilev, V.I.)'
'Magarill, S.A.'
'Borisov, S.V.'
'Naumov, D.Yu.'
_cell_length_a 18.0409(2)
_cell_length_b 18.0409(2)
_cell_length_c 18.0409(2)
_cell_angle_alpha 90.
_cell_angle_beta 90.
_cell_angle_gamma 90.
_cell_volume 5871.85
_cell_formula_units_Z 32
_symmetry_space_group_name_H-M 'P m -3 n'
_symmetry_Int_Tables_number 223
_refine_ls_R_factor_all 0.0282
loop_
_symmetry_equiv_pos_site_id
_symmetry_equiv_pos_as_xyz
1 'z+1/2, -y+1/2, x+1/2'
2 'y+1/2, -x+1/2, z+1/2'
3 'x+1/2, -z+1/2, y+1/2'
4 '-z+1/2, y+1/2, -x+1/2'
5 '-y+1/2, x+1/2, -z+1/2'
6 '-x+1/2, z+1/2, -y+1/2'
7 'z+1/2, y+1/2, -x+1/2'
8 'y+1/2, x+1/2, -z+1/2'
9 'x+1/2, z+1/2, -y+1/2'
10 '-z+1/2, -y+1/2, x+1/2'
11 '-y+1/2, -x+1/2, z+1/2'
12 '-x+1/2, -z+1/2, y+1/2'
13 '-z+1/2, y+1/2, x+1/2'
14 '-y+1/2, x+1/2, z+1/2'
15 '-x+1/2, z+1/2, y+1/2'
16 'z+1/2, -y+1/2, -x+1/2'
17 'y+1/2, -x+1/2, -z+1/2'
18 'x+1/2, -z+1/2, -y+1/2'
19 '-z+1/2, -y+1/2, -x+1/2'
20 '-y+1/2, -x+1/2, -z+1/2'
21 '-x+1/2, -z+1/2, -y+1/2'
22 'z+1/2, y+1/2, x+1/2'
23 'y+1/2, x+1/2, z+1/2'
24 'x+1/2, z+1/2, y+1/2'
25 'z, x, -y'
26 'y, z, -x'
27 'x, y, -z'
28 '-z, -x, y'
29 '-y, -z, x'
30 '-x, -y, z'
31 'z, -x, y'
32 'y, -z, x'
33 'x, -y, z'
34 '-z, x, -y'
35 '-y, z, -x'
36 '-x, y, -z'
37 '-z, x, y'
38 '-y, z, x'
39 '-x, y, z'
40 'z, -x, -y'
41 'y, -z, -x'
42 'x, -y, -z'
43 '-z, -x, -y'
44 '-y, -z, -x'
45 '-x, -y, -z'
46 'z, x, y'
47 'y, z, x'
48 'x, y, z'
loop_
_atom_type_symbol
_atom_type_oxidation_number
Hg2+ 2
S2- -2
Br1- -1
Cl1- -1
Br1- -1
Cl1- -1
Br1- -1
Cl1- -1
Br1- -1
Cl1- -1
loop_
_atom_site_label
_atom_site_type_symbol
_atom_site_symmetry_multiplicity
_atom_site_Wyckoff_symbol
_atom_site_fract_x
_atom_site_fract_y
_atom_site_fract_z
_atom_site_B_iso_or_equiv
_atom_site_occupancy
_atom_site_attached_hydrogens
Hg1 Hg2+ 24 j 0.25 0.3564(1) 0.1436(1) 0.038(1) 1. 0
Hg2 Hg2+ 24 k 0 0.1447(1) 0.1355(1) 0.034(1) 1. 0
Hg3 Hg2+ 24 k 0.1153(1) 0.5 0.1415(1) 0.035(1) 1. 0
Hg4 Hg2+ 24 k 0.1160(1) 0.3638(1) 0 0.035(1) 1. 0
S1 S2- 48 l 0.1174(2) 0.3680(2) 0.1322(2) 0.027(1) 1. 0
S2 S2- 16 i 0.1323(2) 0.1323(2) 0.1323(2) 0.029(2) 1. 0
Br1 Br1- 2 a 0 0 0 0.075(4) 1. 0
Cl1 Cl1- 6 b 0 0.5 0 0.012(2) 1. 0
Cl2 Cl1- 12 f 0 0.2450(3) 0 0.037(2) 0.72(3) 0
Br2 Br1- 12 f 0 0.2450(3) 0 0.037(2) 0.28(2) 0
Cl3 Cl1- 6 d 0.25 0.5 0 0.032(2) 0.67(3) 0
Br3 Br1- 6 d 0.25 0.5 0 0.032(2) 0.33(3) 0
Cl4 Cl1- 24 k 0 0.2486(2) 0.2570(2) 0.034(1) 0.70(1) 0
Br4 Br1- 24 k 0 0.2486(2) 0.2570(2) 0.034(1) 0.30(1) 0
Cl5 Cl1- 6 c 0 0.5 0.25 0.019(2) 1. 0
Cl6 Cl1- 8 e 0.25 0.25 0.25 0.023(1) 1. 0
#End of TTdata_156230-ICSD