
#(C) 2019 by FIZ Karlsruhe - Leibniz Institute for Information Infrastructure.  All rights reserved.
data_93428-ICSD
_database_code_ICSD 93428
_audit_creation_date 2003-04-01
_chemical_name_systematic 'Trisilver sulfide iodide - alpha'
_chemical_formula_structural 'Ag3 S I'
_chemical_formula_sum 'Ag3 I1 S1'
_exptl_crystal_density_diffrn 6.5
_cell_measurement_temperature 569.
_publ_section_title 'The crystal structures of superionic Ag3 S I'
loop_
_citation_id
_citation_journal_full
_citation_year
_citation_journal_volume
_citation_page_first
_citation_page_last
_citation_journal_id_ASTM
primary 'Journal of Physics: Condensed Matter' 2001 13 2295 2316 JCOMEL
loop_
_publ_author_name
'Hull, S.'
'Keen, D.A.'
'Gardner, N.J.G.'
'Hayes, W.'
_cell_length_a 4.97727(14)
_cell_length_b 4.97727(14)
_cell_length_c 4.97727(14)
_cell_angle_alpha 90
_cell_angle_beta 90
_cell_angle_gamma 90
_cell_volume 123.3
_cell_formula_units_Z 1
_symmetry_space_group_name_H-M 'I m -3 m'
_symmetry_Int_Tables_number 229
_refine_ls_R_factor_all 0.009
loop_
_symmetry_equiv_pos_site_id
_symmetry_equiv_pos_as_xyz
1 'z, y, -x'
2 'y, x, -z'
3 'x, z, -y'
4 'z, x, -y'
5 'y, z, -x'
6 'x, y, -z'
7 'z, -y, x'
8 'y, -x, z'
9 'x, -z, y'
10 'z, -x, y'
11 'y, -z, x'
12 'x, -y, z'
13 '-z, y, x'
14 '-y, x, z'
15 '-x, z, y'
16 '-z, x, y'
17 '-y, z, x'
18 '-x, y, z'
19 '-z, -y, -x'
20 '-y, -x, -z'
21 '-x, -z, -y'
22 '-z, -x, -y'
23 '-y, -z, -x'
24 '-x, -y, -z'
25 '-z, -y, x'
26 '-y, -x, z'
27 '-x, -z, y'
28 '-z, -x, y'
29 '-y, -z, x'
30 '-x, -y, z'
31 '-z, y, -x'
32 '-y, x, -z'
33 '-x, z, -y'
34 '-z, x, -y'
35 '-y, z, -x'
36 '-x, y, -z'
37 'z, -y, -x'
38 'y, -x, -z'
39 'x, -z, -y'
40 'z, -x, -y'
41 'y, -z, -x'
42 'x, -y, -z'
43 'z, y, x'
44 'y, x, z'
45 'x, z, y'
46 'z, x, y'
47 'y, z, x'
48 'x, y, z'
49 'z+1/2, y+1/2, -x+1/2'
50 'y+1/2, x+1/2, -z+1/2'
51 'x+1/2, z+1/2, -y+1/2'
52 'z+1/2, x+1/2, -y+1/2'
53 'y+1/2, z+1/2, -x+1/2'
54 'x+1/2, y+1/2, -z+1/2'
55 'z+1/2, -y+1/2, x+1/2'
56 'y+1/2, -x+1/2, z+1/2'
57 'x+1/2, -z+1/2, y+1/2'
58 'z+1/2, -x+1/2, y+1/2'
59 'y+1/2, -z+1/2, x+1/2'
60 'x+1/2, -y+1/2, z+1/2'
61 '-z+1/2, y+1/2, x+1/2'
62 '-y+1/2, x+1/2, z+1/2'
63 '-x+1/2, z+1/2, y+1/2'
64 '-z+1/2, x+1/2, y+1/2'
65 '-y+1/2, z+1/2, x+1/2'
66 '-x+1/2, y+1/2, z+1/2'
67 '-z+1/2, -y+1/2, -x+1/2'
68 '-y+1/2, -x+1/2, -z+1/2'
69 '-x+1/2, -z+1/2, -y+1/2'
70 '-z+1/2, -x+1/2, -y+1/2'
71 '-y+1/2, -z+1/2, -x+1/2'
72 '-x+1/2, -y+1/2, -z+1/2'
73 '-z+1/2, -y+1/2, x+1/2'
74 '-y+1/2, -x+1/2, z+1/2'
75 '-x+1/2, -z+1/2, y+1/2'
76 '-z+1/2, -x+1/2, y+1/2'
77 '-y+1/2, -z+1/2, x+1/2'
78 '-x+1/2, -y+1/2, z+1/2'
79 '-z+1/2, y+1/2, -x+1/2'
80 '-y+1/2, x+1/2, -z+1/2'
81 '-x+1/2, z+1/2, -y+1/2'
82 '-z+1/2, x+1/2, -y+1/2'
83 '-y+1/2, z+1/2, -x+1/2'
84 '-x+1/2, y+1/2, -z+1/2'
85 'z+1/2, -y+1/2, -x+1/2'
86 'y+1/2, -x+1/2, -z+1/2'
87 'x+1/2, -z+1/2, -y+1/2'
88 'z+1/2, -x+1/2, -y+1/2'
89 'y+1/2, -z+1/2, -x+1/2'
90 'x+1/2, -y+1/2, -z+1/2'
91 'z+1/2, y+1/2, x+1/2'
92 'y+1/2, x+1/2, z+1/2'
93 'x+1/2, z+1/2, y+1/2'
94 'z+1/2, x+1/2, y+1/2'
95 'y+1/2, z+1/2, x+1/2'
96 'x+1/2, y+1/2, z+1/2'
loop_
_atom_type_symbol
_atom_type_oxidation_number
S2- -2
I1- -1
Ag1+ 1
loop_
_atom_site_label
_atom_site_type_symbol
_atom_site_symmetry_multiplicity
_atom_site_Wyckoff_symbol
_atom_site_fract_x
_atom_site_fract_y
_atom_site_fract_z
_atom_site_B_iso_or_equiv
_atom_site_occupancy
_atom_site_attached_hydrogens
S1 S2- 2 a 0 0 0 6.3(3) 0.5 0
I1 I1- 2 a 0 0 0 6.3(3) 0.5 0
Ag1 Ag1+ 24 h 0.375(2) 0.375(2) 0 . 0.125 0
loop_
_atom_site_aniso_label
_atom_site_aniso_type_symbol
_atom_site_aniso_U_11
_atom_site_aniso_U_22
_atom_site_aniso_U_33
_atom_site_aniso_U_12
_atom_site_aniso_U_13
_atom_site_aniso_U_23
Ag1 Ag1+ 11.1(8) 11.1(8) 8.2(9) 2.7(6) 0. 0.
#End of TTdata_93428-ICSD