
#(C) 2019 by FIZ Karlsruhe - Leibniz Institute for Information Infrastructure.  All rights reserved.
data_91224-ICSD
_database_code_ICSD 91224
_audit_creation_date 2002-10-01
_chemical_name_systematic 'Barium germanide (6/24)'
_chemical_formula_structural 'Ba6 Ge24'
_chemical_formula_sum 'Ba6 Ge24'
_exptl_crystal_density_diffrn 5.54
_publ_section_title

;
Structure and thermoelectric properties of Ba6 Ge25-x, Ba6 Ge23 Sn2, and Ba6
Ge22 In3: Zintl phases with a chiral clathrate structure
;
loop_
_citation_id
_citation_journal_full
_citation_year
_citation_journal_volume
_citation_page_first
_citation_page_last
_citation_journal_id_ASTM
primary 'Journal of Solid State Chemistry' 2000 153 321 329 JSSCBI
loop_
_publ_author_name
'Kim, S.-J.'
'Hu, S.-Q.'
'Uher, C.'
'Hogan, T.'
'Huang, B.-Q.'
'Corbett, J.D.'
'Kanatzidis, M.G.'
_cell_length_a 14.5483(2)
_cell_length_b 14.5483(2)
_cell_length_c 14.5483(2)
_cell_angle_alpha 90.
_cell_angle_beta 90.
_cell_angle_gamma 90.
_cell_volume 3079.19
_cell_formula_units_Z 4
_symmetry_space_group_name_H-M 'P 41 3 2'
_symmetry_Int_Tables_number 213
_refine_ls_R_factor_all 0.034
loop_
_symmetry_equiv_pos_site_id
_symmetry_equiv_pos_as_xyz
1 '-z+1/4, y+3/4, x+1/4'
2 'z+1/4, -y+1/4, x+3/4'
3 'z+3/4, y+1/4, -x+1/4'
4 '-z+3/4, -y+3/4, -x+3/4'
5 'y+3/4, x+1/4, -z+1/4'
6 '-y+1/4, x+3/4, z+1/4'
7 'y+1/4, -x+1/4, z+3/4'
8 '-y+3/4, -x+3/4, -z+3/4'
9 'x+1/4, -z+1/4, y+3/4'
10 'x+3/4, z+1/4, -y+1/4'
11 '-x+1/4, z+3/4, y+1/4'
12 '-x+3/4, -z+3/4, -y+3/4'
13 'z+1/2, -x+1/2, -y'
14 '-z+1/2, -x, y+1/2'
15 '-z, x+1/2, -y+1/2'
16 'z, x, y'
17 '-y, z+1/2, -x+1/2'
18 'y+1/2, -z+1/2, -x'
19 '-y+1/2, -z, x+1/2'
20 'y, z, x'
21 '-x+1/2, -y, z+1/2'
22 '-x, y+1/2, -z+1/2'
23 'x+1/2, -y+1/2, -z'
24 'x, y, z'
loop_
_atom_type_symbol
_atom_type_oxidation_number
Ba0+ 0
Ge0+ 0
loop_
_atom_site_label
_atom_site_type_symbol
_atom_site_symmetry_multiplicity
_atom_site_Wyckoff_symbol
_atom_site_fract_x
_atom_site_fract_y
_atom_site_fract_z
_atom_site_B_iso_or_equiv
_atom_site_occupancy
_atom_site_attached_hydrogens
Ba1 Ba0+ 8 c 0.0601(1) 0.0601(1) 0.0601(1) . 1. 0
Ba2 Ba0+ 4 a 0.625 0.875 0.125 . 1. 0
Ba3 Ba0+ 12 d 0.1883(1) 0.4383(1) 0.125 . 1. 0
Ge1 Ge0+ 24 e 0.9996(1) 0.2966(1) 0.0428(1) . 0.938(7) 0
Ge2 Ge0+ 12 d 0.8307(1) 0.0807(1) 0.125 . 0.944(9) 0
Ge3 Ge0+ 24 e 0.8634(1) 0.9154(1) 0.0845(1) . 0.980(6) 0
Ge4 Ge0+ 8 c 0.9246(1) 0.9246(1) 0.9246(1) . 1. 0
Ge5 Ge0+ 24 e 0.1257(1) 0.2597(1) 0.9348(1) . 0.972(7) 0
Ge6 Ge0+ 8 c 0.9690(1) 0.4690(1) 0.0310(1) . 0.911(12) 0
loop_
_atom_site_aniso_label
_atom_site_aniso_type_symbol
_atom_site_aniso_U_11
_atom_site_aniso_U_22
_atom_site_aniso_U_33
_atom_site_aniso_U_12
_atom_site_aniso_U_13
_atom_site_aniso_U_23
Ba1 Ba0+ 0.010(1) 0.010(1) 0.010(1) 0.000(1) 0.000(1) 0.000(1)
Ba2 Ba0+ 0.018(1) 0.018(1) 0.018(1) -.006(1) 0.006(1) -.006(1)
Ba3 Ba0+ 0.018(1) 0.018(1) 0.107(1) 0.006(1) 0.002(1) -.002(1)
Ge1 Ge0+ 0.005(1) 0.004(1) 0.006(1) 0.001(1) 0.001(1) -.001(1)
Ge2 Ge0+ 0.006(1) 0.006(1) 0.005(1) 0.002(1) 0.001(1) -.001(1)
Ge3 Ge0+ 0.007(1) 0.006(1) 0.009(1) -.001(1) 0.001(1) 0.001(1)
Ge4 Ge0+ 0.006(1) 0.006(1) 0.006(1) -.002(1) -.002(1) -.002(1)
Ge5 Ge0+ 0.006(1) 0.006(1) 0.007(1) 0.000(1) 0.002(1) 0.000(1)
Ge6 Ge0+ 0.022(1) 0.022(1) 0.022(1) -.001(1) 0.001(1) 0.001(1)
#End of TTdata_91224-ICSD