
#(C) 2019 by FIZ Karlsruhe - Leibniz Institute for Information Infrastructure.  All rights reserved.
data_159768-ICSD
_database_code_ICSD 159768
_audit_creation_date 2008-08-01
_chemical_name_systematic 'Barium indium germanium (24/12.8/87.2) - III'
_chemical_formula_structural 'Ba24 (In12.8 Ge87.2)'
_chemical_formula_sum 'Ba24 Ge87.2 In12.8'
_chemical_name_structure_type K6Sn25
_exptl_crystal_density_diffrn 5.76
_publ_section_title

;
Crystal structure and thermoelectric properties of type III - clathrate
compounds in the Ba - In - Ge system
;
loop_
_citation_id
_citation_journal_full
_citation_year
_citation_journal_volume
_citation_page_first
_citation_page_last
_citation_journal_id_ASTM
primary 'Journal of Applied Physics (Melville, NY, United States)' 2007 102
094506-1 094506-9 JAPIAU
loop_
_publ_author_name
'Kim Jung-Hwan'
'Okamoto, N.L.'
'Kishida, K.'
'Tanaka, K.'
'Inui, H.'
_cell_length_a 14.7320(1)
_cell_length_b 14.7320(1)
_cell_length_c 14.7320(1)
_cell_angle_alpha 90.
_cell_angle_beta 90.
_cell_angle_gamma 90.
_cell_volume 3197.31
_cell_formula_units_Z 1
_symmetry_space_group_name_H-M 'P 41 3 2'
_symmetry_Int_Tables_number 213
_refine_ls_R_factor_all 0.022
loop_
_symmetry_equiv_pos_site_id
_symmetry_equiv_pos_as_xyz
1 '-z+1/4, y+3/4, x+1/4'
2 'z+1/4, -y+1/4, x+3/4'
3 'z+3/4, y+1/4, -x+1/4'
4 '-z+3/4, -y+3/4, -x+3/4'
5 'y+3/4, x+1/4, -z+1/4'
6 '-y+1/4, x+3/4, z+1/4'
7 'y+1/4, -x+1/4, z+3/4'
8 '-y+3/4, -x+3/4, -z+3/4'
9 'x+1/4, -z+1/4, y+3/4'
10 'x+3/4, z+1/4, -y+1/4'
11 '-x+1/4, z+3/4, y+1/4'
12 '-x+3/4, -z+3/4, -y+3/4'
13 'z+1/2, -x+1/2, -y'
14 '-z+1/2, -x, y+1/2'
15 '-z, x+1/2, -y+1/2'
16 'z, x, y'
17 '-y, z+1/2, -x+1/2'
18 'y+1/2, -z+1/2, -x'
19 '-y+1/2, -z, x+1/2'
20 'y, z, x'
21 '-x+1/2, -y, z+1/2'
22 '-x, y+1/2, -z+1/2'
23 'x+1/2, -y+1/2, -z'
24 'x, y, z'
loop_
_atom_type_symbol
_atom_type_oxidation_number
Ba0+ 0
Ge0+ 0
In0+ 0
Ge0+ 0
In0+ 0
Ge0+ 0
In0+ 0
Ge0+ 0
In0+ 0
Ge0+ 0
In0+ 0
loop_
_atom_site_label
_atom_site_type_symbol
_atom_site_symmetry_multiplicity
_atom_site_Wyckoff_symbol
_atom_site_fract_x
_atom_site_fract_y
_atom_site_fract_z
_atom_site_B_iso_or_equiv
_atom_site_occupancy
_atom_site_attached_hydrogens
Ba1 Ba0+ 8 c 0.1921(1) 0.1921(1) 0.1921(1) 0.0153(7) 1. 0
Ba2 Ba0+ 12 d 0.125 0.8130(1) 0.0630(1) . 1. 0
Ba3 Ba0+ 4 b 0.875 0.875 0.875 0.0225(11) 1. 0
Ge1 Ge0+ 8 c 0.0309(2) 0.0309(2) 0.0309(2) 0.0182(4) 0.983 0
In1 In0+ 8 c 0.0309(2) 0.0309(2) 0.0309(2) 0.0182(4) 0.017 0
Ge2 Ge0+ 24 e 0.2038(1) 0.0419(2) 0.0021(2) 0.0182(4) 0.736 0
In2 In0+ 24 e 0.2038(1) 0.0419(2) 0.0021(2) 0.0182(4) 0.264 0
Ge3 Ge0+ 12 d 0.125 0.1732(1) 0.4232(1) 0.0182(4) 0.718 0
In3 In0+ 12 d 0.125 0.1732(1) 0.4232(1) 0.0182(4) 0.282 0
Ge4 Ge0+ 24 e 0.2396(2) 0.9319(2) 0.8758(2) 0.0182(4) 0.951 0
In4 In0+ 24 e 0.2396(2) 0.9319(2) 0.8758(2) 0.0182(4) 0.049 0
Ge5 Ge0+ 24 e 0.4148(2) 0.8538(2) 0.0876(2) 0.0182(4) 1. 0
Ge6 Ge0+ 8 c 0.3253(2) 0.3253(2) 0.3253(2) 0.0182(4) 0.783 0
In5 In0+ 8 c 0.3253(2) 0.3253(2) 0.3253(2) 0.0182(4) 0.217 0
loop_
_atom_site_aniso_label
_atom_site_aniso_type_symbol
_atom_site_aniso_U_11
_atom_site_aniso_U_22
_atom_site_aniso_U_33
_atom_site_aniso_U_12
_atom_site_aniso_U_13
_atom_site_aniso_U_23
Ba2 Ba0+ 0.1320(27) 0.0263(10) 0.0263(10) 0.0055(11) 0.0055(11) 0.0055(11)
#End of TTdata_159768-ICSD