
#(C) 2019 by FIZ Karlsruhe - Leibniz Institute for Information Infrastructure.  All rights reserved.
data_152259-ICSD
_database_code_ICSD 152259
_audit_creation_date 2006-10-01
_audit_update_record 2013-08-01
_chemical_name_systematic 'Iron palladium molybdenum nitride (1.95/0.05/3/1)'
_chemical_formula_structural 'Fe1.95 Pd0.05 Mo3 N'
_chemical_formula_sum 'Fe1.95 Mo3 N1 Pd0.05'
_chemical_name_structure_type Al2Mo3C
_exptl_crystal_density_diffrn 9.18
_publ_section_title

;
Ferromagnetic nitrides with the filled beta-Mn structure: Fe2-x Mx Mo3 N (M =
Ni, Pd, Pt)
;
loop_
_citation_id
_citation_journal_full
_citation_year
_citation_journal_volume
_citation_page_first
_citation_page_last
_citation_journal_id_ASTM
primary 'Chemistry of Materials' 2005 17 1867 1873 CMATEX
loop_
_publ_author_name
'Prior, T.J.'
'Oldham, S.E.'
'Couper, V.J.'
'Battle, P.D.'
_cell_length_a 6.70287(6)
_cell_length_b 6.70287(6)
_cell_length_c 6.70287(6)
_cell_angle_alpha 90.
_cell_angle_beta 90.
_cell_angle_gamma 90.
_cell_volume 301.15
_cell_formula_units_Z 4
_symmetry_space_group_name_H-M 'P 41 3 2'
_symmetry_Int_Tables_number 213
_refine_ls_R_factor_all 0.052
loop_
_symmetry_equiv_pos_site_id
_symmetry_equiv_pos_as_xyz
1 '-z+1/4, y+3/4, x+1/4'
2 'z+1/4, -y+1/4, x+3/4'
3 'z+3/4, y+1/4, -x+1/4'
4 '-z+3/4, -y+3/4, -x+3/4'
5 'y+3/4, x+1/4, -z+1/4'
6 '-y+1/4, x+3/4, z+1/4'
7 'y+1/4, -x+1/4, z+3/4'
8 '-y+3/4, -x+3/4, -z+3/4'
9 'x+1/4, -z+1/4, y+3/4'
10 'x+3/4, z+1/4, -y+1/4'
11 '-x+1/4, z+3/4, y+1/4'
12 '-x+3/4, -z+3/4, -y+3/4'
13 'z+1/2, -x+1/2, -y'
14 '-z+1/2, -x, y+1/2'
15 '-z, x+1/2, -y+1/2'
16 'z, x, y'
17 '-y, z+1/2, -x+1/2'
18 'y+1/2, -z+1/2, -x'
19 '-y+1/2, -z, x+1/2'
20 'y, z, x'
21 '-x+1/2, -y, z+1/2'
22 '-x, y+1/2, -z+1/2'
23 'x+1/2, -y+1/2, -z'
24 'x, y, z'
loop_
_atom_type_symbol
_atom_type_oxidation_number
Fe0+ 0
Pd0+ 0
Mo0+ 0
N0+ 0
loop_
_atom_site_label
_atom_site_type_symbol
_atom_site_symmetry_multiplicity
_atom_site_Wyckoff_symbol
_atom_site_fract_x
_atom_site_fract_y
_atom_site_fract_z
_atom_site_B_iso_or_equiv
_atom_site_occupancy
_atom_site_attached_hydrogens
Fe1 Fe0+ 8 c 0.0693(3) 0.0693(3) 0.0693(3) 0.001 0.975 0
Pd1 Pd0+ 8 c 0.0693(3) 0.0693(3) 0.0693(3) 0.001 0.025 0
Mo1 Mo0+ 12 d 0.125 0.2039(2) 0.4539(2) 0.0030(5) 1. 0
N1 N0+ 4 a 0.375 0.375 0.375 0.001 1. 0
#End of TTdata_152259-ICSD