
#(C) 2019 by FIZ Karlsruhe - Leibniz Institute for Information Infrastructure.  All rights reserved.
data_68301-ICSD
_database_code_ICSD 68301
_audit_creation_date 1991-07-10
_chemical_name_systematic 'Dithallium tetracyanozincate'
_chemical_formula_structural 'Tl2 (Zn (C N)4)'
_chemical_formula_sum 'C4 N4 Tl2 Zn1'
_exptl_crystal_density_diffrn 3.96
_publ_section_title

;
Crystal structure of the cyanospinel Tl2Zn(CN)4 and structure relationship in
the cyanospinel group
;
loop_
_citation_id
_citation_journal_full
_citation_year
_citation_journal_volume
_citation_page_first
_citation_page_last
_citation_journal_id_ASTM
primary 'Zeitschrift fuer Kristallographie' 1988 184 281 288 ZEKRDZ
loop_
_publ_author_name
'Wiehl, L.'
'Kluefers, P.'
'Schweiss, B.P.'
'Fuess, H.'
_cell_length_a 24.946(13)
_cell_length_b 24.946(13)
_cell_length_c 24.946(13)
_cell_angle_alpha 90.
_cell_angle_beta 90.
_cell_angle_gamma 90.
_cell_volume 15523.97
_cell_formula_units_Z 64
_symmetry_space_group_name_H-M 'F -4 3 c'
_symmetry_Int_Tables_number 219
_refine_ls_R_factor_all 0.033
loop_
_symmetry_equiv_pos_site_id
_symmetry_equiv_pos_as_xyz
1 '-z, y, -x+1/2'
2 '-y, x, -z+1/2'
3 '-x, z, -y+1/2'
4 'z, -y, -x+1/2'
5 'y, -x, -z+1/2'
6 'x, -z, -y+1/2'
7 '-z, -y, x+1/2'
8 '-y, -x, z+1/2'
9 '-x, -z, y+1/2'
10 'z, y, x+1/2'
11 'y, x, z+1/2'
12 'x, z, y+1/2'
13 '-z, -x, y'
14 '-y, -z, x'
15 '-x, -y, z'
16 'z, -x, -y'
17 'y, -z, -x'
18 'x, -y, -z'
19 '-z, x, -y'
20 '-y, z, -x'
21 '-x, y, -z'
22 'z, x, y'
23 'y, z, x'
24 'x, y, z'
25 '-z, y+1/2, -x'
26 '-y, x+1/2, -z'
27 '-x, z+1/2, -y'
28 'z, -y+1/2, -x'
29 'y, -x+1/2, -z'
30 'x, -z+1/2, -y'
31 '-z, -y+1/2, x'
32 '-y, -x+1/2, z'
33 '-x, -z+1/2, y'
34 'z, y+1/2, x'
35 'y, x+1/2, z'
36 'x, z+1/2, y'
37 '-z, -x+1/2, y+1/2'
38 '-y, -z+1/2, x+1/2'
39 '-x, -y+1/2, z+1/2'
40 'z, -x+1/2, -y+1/2'
41 'y, -z+1/2, -x+1/2'
42 'x, -y+1/2, -z+1/2'
43 '-z, x+1/2, -y+1/2'
44 '-y, z+1/2, -x+1/2'
45 '-x, y+1/2, -z+1/2'
46 'z, x+1/2, y+1/2'
47 'y, z+1/2, x+1/2'
48 'x, y+1/2, z+1/2'
49 '-z+1/2, y, -x'
50 '-y+1/2, x, -z'
51 '-x+1/2, z, -y'
52 'z+1/2, -y, -x'
53 'y+1/2, -x, -z'
54 'x+1/2, -z, -y'
55 '-z+1/2, -y, x'
56 '-y+1/2, -x, z'
57 '-x+1/2, -z, y'
58 'z+1/2, y, x'
59 'y+1/2, x, z'
60 'x+1/2, z, y'
61 '-z+1/2, -x, y+1/2'
62 '-y+1/2, -z, x+1/2'
63 '-x+1/2, -y, z+1/2'
64 'z+1/2, -x, -y+1/2'
65 'y+1/2, -z, -x+1/2'
66 'x+1/2, -y, -z+1/2'
67 '-z+1/2, x, -y+1/2'
68 '-y+1/2, z, -x+1/2'
69 '-x+1/2, y, -z+1/2'
70 'z+1/2, x, y+1/2'
71 'y+1/2, z, x+1/2'
72 'x+1/2, y, z+1/2'
73 '-z+1/2, y+1/2, -x+1/2'
74 '-y+1/2, x+1/2, -z+1/2'
75 '-x+1/2, z+1/2, -y+1/2'
76 'z+1/2, -y+1/2, -x+1/2'
77 'y+1/2, -x+1/2, -z+1/2'
78 'x+1/2, -z+1/2, -y+1/2'
79 '-z+1/2, -y+1/2, x+1/2'
80 '-y+1/2, -x+1/2, z+1/2'
81 '-x+1/2, -z+1/2, y+1/2'
82 'z+1/2, y+1/2, x+1/2'
83 'y+1/2, x+1/2, z+1/2'
84 'x+1/2, z+1/2, y+1/2'
85 '-z+1/2, -x+1/2, y'
86 '-y+1/2, -z+1/2, x'
87 '-x+1/2, -y+1/2, z'
88 'z+1/2, -x+1/2, -y'
89 'y+1/2, -z+1/2, -x'
90 'x+1/2, -y+1/2, -z'
91 '-z+1/2, x+1/2, -y'
92 '-y+1/2, z+1/2, -x'
93 '-x+1/2, y+1/2, -z'
94 'z+1/2, x+1/2, y'
95 'y+1/2, z+1/2, x'
96 'x+1/2, y+1/2, z'
loop_
_atom_type_symbol
_atom_type_oxidation_number
Tl1+ 1
Zn2+ 2
C2+ 2
N3- -3
loop_
_atom_site_label
_atom_site_type_symbol
_atom_site_symmetry_multiplicity
_atom_site_Wyckoff_symbol
_atom_site_fract_x
_atom_site_fract_y
_atom_site_fract_z
_atom_site_B_iso_or_equiv
_atom_site_occupancy
_atom_site_attached_hydrogens
Tl1 Tl1+ 32 e 0.06158(7) 0.06158(7) 0.06158(7) . 1. 0
Tl2 Tl1+ 96 h 0.06069(6) 0.16733(5) 0.20546(5) . 1. 0
Zn1 Zn2+ 8 b 0.25 0.25 0.25 . 1. 0
Zn2 Zn2+ 24 d 0.25 0 0 . 1. 0
Zn3 Zn2+ 32 e 0.3707(1) 0.3707(1) 0.3707(1) . 1. 0
C1 C2+ 32 e 0.2083(9) 0.2083(9) 0.2083(9) 0.048(1) 1. 0
C2 C2+ 96 h 0.2077(11) 0.0517(10) 0.0250(9) 0.061(7) 1. 0
C3 C2+ 32 e 0.4242(12) 0.4242(12) 0.4242(12) 0.0750(16) 1. 0
C4 C2+ 96 h 0.4146(12) 0.3069(11) 0.3369(10) 0.072(9) 1. 0
N1 N3- 32 e 0.1808(12) 0.1808(12) 0.1808(12) 0.108(16) 1. 0
N2 N3- 96 h 0.1835(11) 0.0853(11) 0.0357(10) 0.104(8) 1. 0
N3 N3- 32 e 0.4476(9) 0.4476(9) 0.4476(9) 0.077(11) 1. 0
N4 N3- 96 h 0.4462(8) 0.2777(7) 0.3169(7) 0.058(5) 1. 0
loop_
_atom_site_aniso_label
_atom_site_aniso_type_symbol
_atom_site_aniso_U_11
_atom_site_aniso_U_22
_atom_site_aniso_U_33
_atom_site_aniso_U_12
_atom_site_aniso_U_13
_atom_site_aniso_U_23
Tl1 Tl1+ 0.0680(5) 0.0680(5) 0.0680(5) -.0058(5) -.0058(5) -.0058(5)
Tl2 Tl1+ 0.0695(7) 0.0604(8) 0.0595(8) 0.0016(6) 0.0049(7) -.0019(4)
Zn1 Zn2+ 0.051(4) 0.051(4) 0.051(4) 0 0 0
Zn2 Zn2+ 0.057(3) 0.057(3) 0.057(3) 0 0 0
Zn3 Zn2+ 0.059(2) 0.059(2) 0.059(2) 0.001(2) 0.001(2) 0.001(2)
#End of TTdata_68301-ICSD