
#(C) 2019 by FIZ Karlsruhe - Leibniz Institute for Information Infrastructure.  All rights reserved.
data_414383-ICSD
_database_code_ICSD 414383
_audit_creation_date 2005-10-01
_audit_update_record 2012-02-01
_chemical_name_systematic 'Barium germanium (6/25)'
_chemical_formula_structural 'Ba6 Ge25'
_chemical_formula_sum 'Ba6 Ge25'
_chemical_name_structure_type Ba6Ge25
_exptl_crystal_density_diffrn 5.7
_cell_measurement_temperature 195.
_publ_section_title

;
Ba6 Ge25: low-temperature Ge-Ge bond breaking during temperature-induced
structure transformation
;
loop_
_citation_id
_citation_journal_full
_citation_year
_citation_journal_volume
_citation_page_first
_citation_page_last
_citation_journal_id_ASTM
primary 'Journal of Solid State Chemistry' 2005 178 715 728 JSSCBI
loop_
_publ_author_name
'Carillo Cabrera, W.'
'Borrmann, H.'
'Paschen, S.'
'Baenitz, M.'
'Steglich, F.'
'Grin', Yu. (Hrin', Yu.'
' Grin, Yu.'
' Hrin, Yu.)'
_cell_length_a 14.5437(2)
_cell_length_b 14.5437(2)
_cell_length_c 14.5437(2)
_cell_angle_alpha 90.
_cell_angle_beta 90.
_cell_angle_gamma 90.
_cell_volume 3076.27
_cell_formula_units_Z 4
_symmetry_space_group_name_H-M 'P 41 3 2'
_symmetry_Int_Tables_number 213
_refine_ls_R_factor_all 0.0621
loop_
_symmetry_equiv_pos_site_id
_symmetry_equiv_pos_as_xyz
1 '-z+1/4, y+3/4, x+1/4'
2 'z+1/4, -y+1/4, x+3/4'
3 'z+3/4, y+1/4, -x+1/4'
4 '-z+3/4, -y+3/4, -x+3/4'
5 'y+3/4, x+1/4, -z+1/4'
6 '-y+1/4, x+3/4, z+1/4'
7 'y+1/4, -x+1/4, z+3/4'
8 '-y+3/4, -x+3/4, -z+3/4'
9 'x+1/4, -z+1/4, y+3/4'
10 'x+3/4, z+1/4, -y+1/4'
11 '-x+1/4, z+3/4, y+1/4'
12 '-x+3/4, -z+3/4, -y+3/4'
13 'z+1/2, -x+1/2, -y'
14 '-z+1/2, -x, y+1/2'
15 '-z, x+1/2, -y+1/2'
16 'z, x, y'
17 '-y, z+1/2, -x+1/2'
18 'y+1/2, -z+1/2, -x'
19 '-y+1/2, -z, x+1/2'
20 'y, z, x'
21 '-x+1/2, -y, z+1/2'
22 '-x, y+1/2, -z+1/2'
23 'x+1/2, -y+1/2, -z'
24 'x, y, z'
loop_
_atom_type_symbol
_atom_type_oxidation_number
Ba0+ 0
Ge0+ 0
loop_
_atom_site_label
_atom_site_type_symbol
_atom_site_symmetry_multiplicity
_atom_site_Wyckoff_symbol
_atom_site_fract_x
_atom_site_fract_y
_atom_site_fract_z
_atom_site_B_iso_or_equiv
_atom_site_occupancy
_atom_site_attached_hydrogens
Ba1 Ba0+ 24 e 0.0628(6) 0.0523(2) 0.0642(5) 0.0110(4) 0.33 0
Ba2 Ba0+ 12 d 0.125 0.18778(17) 0.43778(17) 0.0225(4) 0.425(4) 0
Ba3 Ba0+ 24 e 0.1520(3) 0.1892(3) 0.4421(3) 0.0225(4) 0.220(2) 0
Ba4 Ba0+ 24 e 0.1890(9) 0.1996(8) 0.4611(8) 0.0225(4) 0.068(2) 0
Ba5 Ba0+ 8 c 0.36750(9) 0.36750(9) 0.36750(9) 0.0148(4) 0.5 0
Ge1 Ge0+ 24 e 0.29282(7) 0.95301(7) 0.75038(7) 0.01088(18) 1 0
Ge2 Ge0+ 8 c 0.92475(7) 0.92475(7) 0.92475(7) 0.0106(3) 1 0
Ge3 Ge0+ 8 c 0.21837(9) 0.21837(9) 0.21837(9) 0.0183(4) 1 0
Ge4 Ge0+ 12 d 0.125 0.83204(8) 0.08204(8) 0.0094(4) 0.877(7) 0
Ge5 Ge0+ 24 e 0.1879(17) 0.8082(17) 0.0270(16) 0.026(5) 0.061(4) 0
Ge6 Ge0+ 24 e 0.91676(15) 0.08599(15) 0.85302(17) 0.0118(3) 0.877(7) 0
Ge7 Ge0+ 24 e 0.9109(11) 0.0751(12) 0.8531(12) 0.0118(3) 0.123(7) 0
Ge8 Ge0+ 24 e 0.18542(8) 0.99009(7) 0.87668(7) 0.01059(17) 1 0
loop_
_atom_site_aniso_label
_atom_site_aniso_type_symbol
_atom_site_aniso_U_11
_atom_site_aniso_U_22
_atom_site_aniso_U_33
_atom_site_aniso_U_12
_atom_site_aniso_U_13
_atom_site_aniso_U_23
Ge1 Ge0+ 0.0106(4) 0.0113(4) 0.0107(4) 0.0012(3) 0.0007(3) -0.0012(3)
Ge2 Ge0+ 0.0106(3) 0.0106(3) 0.0106(3) -0.0008(3) -0.0008(3) -0.0008(3)
Ge3 Ge0+ 0.0183(4) 0.0183(4) 0.0183(4) 0.0004(4) 0.0004(4) 0.0004(4)
Ge4 Ge0+ 0.0099(7) 0.0092(5) 0.0092(5) 0.0006(4) -0.0006(4) 0.0027(5)
Ge8 Ge0+ 0.0110(4) 0.0106(4) 0.0102(4) 0.0001(3) 0.0024(3) -0.0002(3)
#End of TTdata_414383-ICSD