
#(C) 2019 by FIZ Karlsruhe - Leibniz Institute for Information Infrastructure.  All rights reserved.
data_90177-ICSD
_database_code_ICSD 90177
_audit_creation_date 2002-04-01
_audit_update_record 2010-02-01
_chemical_name_systematic 'Strontium gallium germanide (8/16/30)'
_chemical_formula_structural 'Sr8 Ga16 Ge30'
_chemical_formula_sum 'Ga16 Ge30 Sr8'
_chemical_name_structure_type K4Si23
_exptl_crystal_density_diffrn 5.38
_cell_measurement_temperature 295.
_publ_section_title

;
Structural disorder and thermal conductivity of the semiconducting clathrate
Sr8 Ga16 Ge30
;
loop_
_citation_id
_citation_journal_full
_citation_year
_citation_journal_volume
_citation_page_first
_citation_page_last
_citation_journal_id_ASTM
primary 'Journal of Alloys and Compounds' 2000 296 80 86 JALCEU
loop_
_publ_author_name
'Chakoumakos, B.C.'
'Sales, B.C.'
'Mandrus, D.'
'Nolas, G.S.'
_cell_length_a 10.72365(9)
_cell_length_b 10.72365(9)
_cell_length_c 10.72365(9)
_cell_angle_alpha 90.
_cell_angle_beta 90.
_cell_angle_gamma 90.
_cell_volume 1233.18
_cell_formula_units_Z 1
_symmetry_space_group_name_H-M 'P m -3 n'
_symmetry_Int_Tables_number 223
_refine_ls_R_factor_all 0.055
loop_
_symmetry_equiv_pos_site_id
_symmetry_equiv_pos_as_xyz
1 'z+1/2, -y+1/2, x+1/2'
2 'y+1/2, -x+1/2, z+1/2'
3 'x+1/2, -z+1/2, y+1/2'
4 '-z+1/2, y+1/2, -x+1/2'
5 '-y+1/2, x+1/2, -z+1/2'
6 '-x+1/2, z+1/2, -y+1/2'
7 'z+1/2, y+1/2, -x+1/2'
8 'y+1/2, x+1/2, -z+1/2'
9 'x+1/2, z+1/2, -y+1/2'
10 '-z+1/2, -y+1/2, x+1/2'
11 '-y+1/2, -x+1/2, z+1/2'
12 '-x+1/2, -z+1/2, y+1/2'
13 '-z+1/2, y+1/2, x+1/2'
14 '-y+1/2, x+1/2, z+1/2'
15 '-x+1/2, z+1/2, y+1/2'
16 'z+1/2, -y+1/2, -x+1/2'
17 'y+1/2, -x+1/2, -z+1/2'
18 'x+1/2, -z+1/2, -y+1/2'
19 '-z+1/2, -y+1/2, -x+1/2'
20 '-y+1/2, -x+1/2, -z+1/2'
21 '-x+1/2, -z+1/2, -y+1/2'
22 'z+1/2, y+1/2, x+1/2'
23 'y+1/2, x+1/2, z+1/2'
24 'x+1/2, z+1/2, y+1/2'
25 'z, x, -y'
26 'y, z, -x'
27 'x, y, -z'
28 '-z, -x, y'
29 '-y, -z, x'
30 '-x, -y, z'
31 'z, -x, y'
32 'y, -z, x'
33 'x, -y, z'
34 '-z, x, -y'
35 '-y, z, -x'
36 '-x, y, -z'
37 '-z, x, y'
38 '-y, z, x'
39 '-x, y, z'
40 'z, -x, -y'
41 'y, -z, -x'
42 'x, -y, -z'
43 '-z, -x, -y'
44 '-y, -z, -x'
45 '-x, -y, -z'
46 'z, x, y'
47 'y, z, x'
48 'x, y, z'
loop_
_atom_type_symbol
_atom_type_oxidation_number
Sr0+ 0
Ga0+ 0
Ge0+ 0
Ga0+ 0
Ge0+ 0
Ga0+ 0
Ge0+ 0
loop_
_atom_site_label
_atom_site_type_symbol
_atom_site_symmetry_multiplicity
_atom_site_Wyckoff_symbol
_atom_site_fract_x
_atom_site_fract_y
_atom_site_fract_z
_atom_site_B_iso_or_equiv
_atom_site_occupancy
_atom_site_attached_hydrogens
Sr1 Sr0+ 2 a 0 0 0 0.015(1) 1. 0
Sr2 Sr0+ 24 j 0.25 0.4660(4) 0.9660(4) 0.032(2) 0.25 0
Ga1 Ga0+ 6 c 0.25 0 0.5 0.0120(5) 0.3478 0
Ge1 Ge0+ 6 c 0.25 0 0.5 0.0120(5) 0.6521 0
Ga2 Ga0+ 16 i 0.18424(8) 0.18424(8) 0.18424(8) 0.0085(3) 0.3478 0
Ge2 Ge0+ 16 i 0.18424(8) 0.18424(8) 0.18424(8) 0.0085(3) 0.6521 0
Ga3 Ga0+ 24 k 0 0.3088(1) 0.1169(1) 0.0092(2) 0.3478 0
Ge3 Ge0+ 24 k 0 0.3088(1) 0.1169(1) 0.0092(2) 0.6521 0
#End of TTdata_90177-ICSD